<?xml version="1.0" encoding="UTF-8" standalone="no" ?>
<VTKFile byte_order="LittleEndian" type="UnstructuredGrid" version="0.1">
  <UnstructuredGrid>
    <Piece NumberOfCells="0" NumberOfPoints="16">
      <PointData>
        <DataArray Name="mass" NumberOfComponents="1" format="ascii" type="Float32">1 1 1 1 1 1 1 1 1 1 1 1 1 1 1 1</DataArray>
        <DataArray Name="velocity" NumberOfComponents="3" format="ascii" type="Float32">0.244533863876354 -13.119225675870581 0 -0.244533863869462 -13.119225675875317 0 0.244533863869139 -13.119225675871489 0 -0.24453386386914 -13.119225675871492 0 -0.481398321236791 -9.215934310082631 0 0.481398321228685 -9.215934310087869 0 -0.481398321233138 -9.215934310086146 0 0.481398321233138 -9.215934310086146 0 -0.127150309724655 -10.013313433073536 0 0.127150309725756 -10.01331343307028 0 -0.127150309724251 -10.013313433071888 0 0.12715030972425 -10.013313433071898 0 -0.16809592372703 -7.651526580970716 0 0.168095923727144 -7.651526580969055 0 -0.168095923728608 -7.651526580970487 0 0.168095923728609 -7.65152658097047 0</DataArray>
        <DataArray Name="force" NumberOfComponents="3" format="ascii" type="Float32">-21.739877473945704 0.000000000011971 0 21.739877473945704 -0.000000000011971 0 -21.739877474003844 0 0 21.739877474003844 0 0 -18.93792068417131 0.000000000010691 0 18.93792068417131 -0.000000000010691 0 -18.937920684195586 0 0 18.937920684195586 0 0 14.952800346633611 26.142275534328022 0 -14.952800346658558 26.142275534327048 0 14.952800346647606 26.142275534326501 0 -14.952800346647631 26.142275534326277 0 4.894944178194928 -26.142275534325801 0 -4.894944178169979 -26.142275534329272 0 4.894944178204606 -26.142275534326501 0 -4.894944178204584 -26.142275534326274 0</DataArray>
        <DataArray Name="type" NumberOfComponents="1" format="ascii" type="Int32">0 1 2 3 4 5 6 7 8 9 10 11 12 13 14 15</DataArray>
      </PointData>
      <CellData/>
      <Points>
        <DataArray Name="points" NumberOfComponents="3" format="ascii" type="Float32">15.015003413115112 4.31621784210803 0 16.107496586885379 4.316217842107418 0 17.260003413114891 4.316217842107933 0 18.35249658688511 4.316217842107933 0 15.012046553554095 5.497480342664266 0 16.110453446444666 5.497480342663637 0 17.257046553554726 5.497480342663981 0 18.355453446445274 5.497480342663981 0 14.98879038033524 7.861811099508929 0 16.133709619665517 7.861811099509555 0 17.233790380334863 7.861811099509116 0 18.378709619665138 7.861811099509118 0 14.99919993429369 9.059490715718681 0 16.123300065706314 9.059490715719352 0 17.244199934293668 9.059490715718882 0 18.368300065706332 9.059490715718882 0</DataArray>
      </Points>
      <Cells>
        <DataArray Name="types" NumberOfComponents="0" format="ascii" type="Float32"/>
      </Cells>
    </Piece>
  </UnstructuredGrid>
</VTKFile>
